                         Program Version 5.0.4 -  RELEASE  -
|  1> # avogadro generated ORCA input file
|  2> # Basic Mode
|  3> #
|  4> !B3LYP DEF2-SVP
|  5>
|  6> %PAL NPROCS 3 END
|  7>
|  8> * xyz 0 1
|  9> F         -4.42700        3.47100       -2.11500
| 10> O         -3.67700       -3.99100       -0.70400
| 11> O         -5.54800       -0.28100        0.16000
| 12> O          4.22700       -1.42600       -1.13200
| 13> O         -5.90400        0.94700        4.24600
| 14> O         -4.88300        1.73500        2.49100
| 15> N         -0.20900       -1.33200       -1.22700
| 16> N          3.70700       -0.44400        0.89700
| 17> C          1.04600       -1.90700       -0.96200
| 18> C         -1.46500       -2.07900       -1.40900
| 19> C         -0.11200        0.07300       -1.15500
| 20> C          1.25800       -3.38900       -0.97000
| 21> C         -2.27700       -2.16800       -0.11800
| 22> C          1.93300       -0.85300       -0.73400
| 23> C          1.21400        0.37900       -0.85700
| 24> C         -3.72200       -2.61100       -0.38900
| 25> C         -4.61000       -2.36000        0.84600
| 26> C         -1.23800        0.96900       -1.40400
| 27> C          1.91100       -3.85900        0.32000
| 28> C          2.07100       -3.81300       -2.18400
| 29> C          1.77600        1.71700       -0.71100
| 30> C         -4.74200       -0.86400        1.16400
| 31> C          3.37400       -0.94200       -0.40600
| 32> C         -5.38600       -0.68100        2.55100
| 33> C         -2.01300        1.43000       -0.33700
| 34> C         -1.53100        1.36900       -2.71000
| 35> C          2.73300        2.18000       -1.61700
| 36> C          1.35300        2.54300        0.33400
| 37> C         -3.09600        2.27100       -0.56700
| 38> C         -2.60300        2.21800       -2.95800
| 39> C          3.26400        3.45700       -1.47300
| 40> C          1.89000        3.81800        0.47200
| 41> C         -3.38300        2.65900       -1.88200
| 42> C          5.07000       -0.19800        1.30600
| 43> C         -5.34600        0.74400        3.03100
| 44> C          2.84500        4.27500       -0.42900
| 45> C          6.02100       -1.22400        1.26000
| 46> C          5.41600        1.05300        1.83400
| 47> C          7.30700       -0.98900        1.73100
| 48> C          6.70300        1.27000        2.30700
| 49> C          7.65100        0.25300        2.25500
| 50> H         -2.04900       -1.58200       -2.21100
| 51> H         -1.20900       -3.10200       -1.76800
| 52> H          0.24800       -3.88300       -1.04900
| 53> H         -1.78700       -2.85800        0.59800
| 54> H         -2.31500       -1.17500        0.38900
| 55> H         -4.13600       -2.04800       -1.26300
| 56> H         -5.61400       -2.80300        0.68400
| 57> H         -4.18500       -2.88800        1.72300
| 58> H          1.31200       -3.58200        1.19700
| 59> H          2.02400       -4.95100        0.32400
| 60> H          2.91200       -3.42500        0.45100
| 61> H          2.17500       -4.90600       -2.21800
| 62> H          1.59000       -3.49700       -3.11800
| 63> H          3.08200       -3.38500       -2.17300
| 64> H         -3.71800       -0.39400        1.14900
| 65> H         -6.44100       -1.02700        2.53400
| 66> H         -4.86700       -1.32000        3.29400
| 67> H         -1.76200        1.13700        0.69000
| 68> H         -0.90800        1.02000       -3.54200
| 69> H         -4.56200       -4.24800       -0.92500
| 70> H          3.06400        1.53300       -2.43800
| 71> H          0.58800        2.18600        1.03200
| 72> H          3.08000        0.27100        1.20500
| 73> H         -3.71000        2.62800        0.27000
| 74> H         -2.83400        2.53800       -3.98000
| 75> H         -5.33600        0.64500        0.15400
| 76> H          4.01500        3.81700       -2.18500
| 77> H          1.55600        4.46400        1.29100
| 78> H          3.26600        5.28000       -0.31900
| 79> H          5.76400       -2.20500        0.84300
| 80> H          4.68200        1.86800        1.88000
| 81> H         -5.84700        1.86900        4.48100
| 82> H          8.05300       -1.78900        1.68900
| 83> H          6.97300        2.24700        2.71900
| 84> H          8.66500        0.43000        2.62600
| 85> *
| 86>
| 87>
| 88>
| 89>                          ****END OF INPUT****

CARTESIAN COORDINATES (ANGSTROEM)
---------------------------------
  F     -4.427000    3.471000   -2.115000
  O     -3.677000   -3.991000   -0.704000
  O     -5.548000   -0.281000    0.160000
  O      4.227000   -1.426000   -1.132000
  O     -5.904000    0.947000    4.246000
  O     -4.883000    1.735000    2.491000
  N     -0.209000   -1.332000   -1.227000
  N      3.707000   -0.444000    0.897000
  C      1.046000   -1.907000   -0.962000
  C     -1.465000   -2.079000   -1.409000
  C     -0.112000    0.073000   -1.155000
  C      1.258000   -3.389000   -0.970000
  C     -2.277000   -2.168000   -0.118000
  C      1.933000   -0.853000   -0.734000
  C      1.214000    0.379000   -0.857000
  C     -3.722000   -2.611000   -0.389000
  C     -4.610000   -2.360000    0.846000
  C     -1.238000    0.969000   -1.404000
  C      1.911000   -3.859000    0.320000
  C      2.071000   -3.813000   -2.184000
  C      1.776000    1.717000   -0.711000
  C     -4.742000   -0.864000    1.164000
  C      3.374000   -0.942000   -0.406000
  C     -5.386000   -0.681000    2.551000
  C     -2.013000    1.430000   -0.337000
  C     -1.531000    1.369000   -2.710000
  C      2.733000    2.180000   -1.617000
  C      1.353000    2.543000    0.334000
  C     -3.096000    2.271000   -0.567000
  C     -2.603000    2.218000   -2.958000
  C      3.264000    3.457000   -1.473000
  C      1.890000    3.818000    0.472000
  C     -3.383000    2.659000   -1.882000
  C      5.070000   -0.198000    1.306000
  C     -5.346000    0.744000    3.031000
  C      2.845000    4.275000   -0.429000
  C      6.021000   -1.224000    1.260000
  C      5.416000    1.053000    1.834000
  C      7.307000   -0.989000    1.731000
  C      6.703000    1.270000    2.307000
  C      7.651000    0.253000    2.255000
  H     -2.049000   -1.582000   -2.211000
  H     -1.209000   -3.102000   -1.768000
  H      0.248000   -3.883000   -1.049000
  H     -1.787000   -2.858000    0.598000
  H     -2.315000   -1.175000    0.389000
  H     -4.136000   -2.048000   -1.263000
  H     -5.614000   -2.803000    0.684000
  H     -4.185000   -2.888000    1.723000
  H      1.312000   -3.582000    1.197000
  H      2.024000   -4.951000    0.324000
  H      2.912000   -3.425000    0.451000
  H      2.175000   -4.906000   -2.218000
  H      1.590000   -3.497000   -3.118000
  H      3.082000   -3.385000   -2.173000
  H     -3.718000   -0.394000    1.149000
  H     -6.441000   -1.027000    2.534000
  H     -4.867000   -1.320000    3.294000
  H     -1.762000    1.137000    0.690000
  H     -0.908000    1.020000   -3.542000
  H     -4.562000   -4.248000   -0.925000
  H      3.064000    1.533000   -2.438000
  H      0.588000    2.186000    1.032000
  H      3.080000    0.271000    1.205000
  H     -3.710000    2.628000    0.270000
  H     -2.834000    2.538000   -3.980000
  H     -5.336000    0.645000    0.154000
  H      4.015000    3.817000   -2.185000
  H      1.556000    4.464000    1.291000
  H      3.266000    5.280000   -0.319000
  H      5.764000   -2.205000    0.843000
  H      4.682000    1.868000    1.880000
  H     -5.847000    1.869000    4.481000
  H      8.053000   -1.789000    1.689000
  H      6.973000    2.247000    2.719000
  H      8.665000    0.430000    2.626000

 Total Charge           Charge          ....    0
 Multiplicity           Mult            ....    1
 Number of Electrons    NEL             ....  296
 Basis Dimension        Dim             ....  749

ORBITAL ENERGIES
----------------

  NO   OCC          E(Eh)            E(eV)
   0   2.0000     -24.699180      -672.0988
   1   2.0000     -19.185348      -522.0599
   2   2.0000     -19.140531      -520.8403
   3   2.0000     -19.136786      -520.7384
   4   2.0000     -19.133504      -520.6491
   5   2.0000     -19.097816      -519.6780
   6   2.0000     -14.374374      -391.1466
   7   2.0000     -14.341239      -390.2450
   8   2.0000     -10.336161      -281.2612
   9   2.0000     -10.282764      -279.8082
  10   2.0000     -10.279446      -279.7180
  11   2.0000     -10.253802      -279.0201
  12   2.0000     -10.242082      -278.7012
  13   2.0000     -10.232464      -278.4395
  14   2.0000     -10.219158      -278.0774
  15   2.0000     -10.217953      -278.0446
  16   2.0000     -10.212197      -277.8880
  17   2.0000     -10.208148      -277.7778
  18   2.0000     -10.205882      -277.7162
  19   2.0000     -10.204766      -277.6858
  20   2.0000     -10.204046      -277.6662
  21   2.0000     -10.202896      -277.6349
  22   2.0000     -10.201590      -277.5994
  23   2.0000     -10.195115      -277.4232
  24   2.0000     -10.194043      -277.3940
  25   2.0000     -10.193674      -277.3840
  26   2.0000     -10.192240      -277.3449
  27   2.0000     -10.188183      -277.2346
  28   2.0000     -10.187029      -277.2032
  29   2.0000     -10.186547      -277.1900
  30   2.0000     -10.186151      -277.1793
  31   2.0000     -10.184193      -277.1260
  32   2.0000     -10.180352      -277.0214
  33   2.0000     -10.179810      -277.0067
  34   2.0000     -10.177971      -276.9567
  35   2.0000     -10.177300      -276.9384
  36   2.0000     -10.175145      -276.8798
  37   2.0000     -10.175091      -276.8783
  38   2.0000     -10.172345      -276.8036
  39   2.0000     -10.171003      -276.7671
  40   2.0000     -10.163106      -276.5522
  41   2.0000      -1.208389       -32.8819
  42   2.0000      -1.111172       -30.2365
  43   2.0000      -1.025177       -27.8965
  44   2.0000      -1.019259       -27.7355
  45   2.0000      -1.016664       -27.6648
  46   2.0000      -1.007784       -27.4232
  47   2.0000      -0.967090       -26.3159
  48   2.0000      -0.903648       -24.5895
  49   2.0000      -0.866414       -23.5763
  50   2.0000      -0.853556       -23.2264
  51   2.0000      -0.830499       -22.5990
  52   2.0000      -0.816804       -22.2264
  53   2.0000      -0.803743       -21.8710
  54   2.0000      -0.800491       -21.7825
  55   2.0000      -0.775253       -21.0957
  56   2.0000      -0.764424       -20.8010
  57   2.0000      -0.758160       -20.6306
  58   2.0000      -0.748265       -20.3613
  59   2.0000      -0.737140       -20.0586
  60   2.0000      -0.731165       -19.8960
  61   2.0000      -0.730241       -19.8709
  62   2.0000      -0.715470       -19.4689
  63   2.0000      -0.692959       -18.8564
  64   2.0000      -0.671146       -18.2628
  65   2.0000      -0.668885       -18.2013
  66   2.0000      -0.641812       -17.4646
  67   2.0000      -0.629633       -17.1332
  68   2.0000      -0.626828       -17.0568
  69   2.0000      -0.620433       -16.8829
  70   2.0000      -0.604383       -16.4461
  71   2.0000      -0.599421       -16.3111
  72   2.0000      -0.598519       -16.2865
  73   2.0000      -0.594815       -16.1857
  74   2.0000      -0.580417       -15.7940
  75   2.0000      -0.578268       -15.7355
  76   2.0000      -0.566850       -15.4248
  77   2.0000      -0.550535       -14.9808
  78   2.0000      -0.548050       -14.9132
  79   2.0000      -0.541266       -14.7286
  80   2.0000      -0.532587       -14.4924
  81   2.0000      -0.529651       -14.4125
  82   2.0000      -0.518525       -14.1098
  83   2.0000      -0.514243       -13.9933
  84   2.0000      -0.511532       -13.9195
  85   2.0000      -0.502468       -13.6729
  86   2.0000      -0.499771       -13.5995
  87   2.0000      -0.488906       -13.3038
  88   2.0000      -0.481902       -13.1132
  89   2.0000      -0.480896       -13.0859
  90   2.0000      -0.470884       -12.8134
  91   2.0000      -0.469752       -12.7826
  92   2.0000      -0.463690       -12.6177
  93   2.0000      -0.461289       -12.5523
  94   2.0000      -0.455772       -12.4022
  95   2.0000      -0.452953       -12.3255
  96   2.0000      -0.448288       -12.1985
  97   2.0000      -0.443180       -12.0595
  98   2.0000      -0.439359       -11.9556
  99   2.0000      -0.438278       -11.9261
 100   2.0000      -0.437288       -11.8992
 101   2.0000      -0.433860       -11.8059
 102   2.0000      -0.426620       -11.6089
 103   2.0000      -0.424081       -11.5398
 104   2.0000      -0.421682       -11.4746
 105   2.0000      -0.418964       -11.4006
 106   2.0000      -0.416493       -11.3333
 107   2.0000      -0.413763       -11.2591
 108   2.0000      -0.408747       -11.1226
 109   2.0000      -0.405938       -11.0461
 110   2.0000      -0.403628       -10.9833
 111   2.0000      -0.403039       -10.9673
 112   2.0000      -0.399972       -10.8838
 113   2.0000      -0.397832       -10.8256
 114   2.0000      -0.395307       -10.7569
 115   2.0000      -0.384476       -10.4621
 116   2.0000      -0.383094       -10.4245
 117   2.0000      -0.377606       -10.2752
 118   2.0000      -0.372389       -10.1332
 119   2.0000      -0.368007       -10.0140
 120   2.0000      -0.365855        -9.9554
 121   2.0000      -0.362148        -9.8545
 122   2.0000      -0.357257        -9.7215
 123   2.0000      -0.355648        -9.6777
 124   2.0000      -0.352214        -9.5842
 125   2.0000      -0.349883        -9.5208
 126   2.0000      -0.345111        -9.3909
 127   2.0000      -0.344304        -9.3690
 128   2.0000      -0.339337        -9.2338
 129   2.0000      -0.338278        -9.2050
 130   2.0000      -0.338101        -9.2002
 131   2.0000      -0.335935        -9.1413
 132   2.0000      -0.330406        -8.9908
 133   2.0000      -0.328340        -8.9346
 134   2.0000      -0.318565        -8.6686
 135   2.0000      -0.295699        -8.0464
 136   2.0000      -0.291385        -7.9290
 137   2.0000      -0.288133        -7.8405
 138   2.0000      -0.273334        -7.4378
 139   2.0000      -0.270483        -7.3602
 140   2.0000      -0.259158        -7.0520
 141   2.0000      -0.258610        -7.0371
 142   2.0000      -0.256374        -6.9763
 143   2.0000      -0.250659        -6.8208
 144   2.0000      -0.244273        -6.6470
 145   2.0000      -0.229448        -6.2436
 146   2.0000      -0.217332        -5.9139
 147   2.0000      -0.203976        -5.5505
 148   0.0000      -0.028410        -0.7731
 149   0.0000      -0.020877        -0.5681
 150   0.0000      -0.015073        -0.4102
 151   0.0000      -0.012031        -0.3274
 152   0.0000      -0.010051        -0.2735

MULLIKEN ATOMIC CHARGES
-----------------------
   0 F :   -0.195470
   1 O :   -0.288185
   2 O :   -0.296361
   3 O :   -0.228116
   4 O :   -0.171007
   5 O :   -0.244011
   6 N :   -0.236999
   7 N :   -0.134682
   8 C :    0.012966
   9 C :    0.165967
  10 C :    0.044018
  11 C :   -0.053647
  12 C :    0.024366
  13 C :   -0.024431
  14 C :    0.044192
  15 C :    0.114497
  16 C :    0.088408
  17 C :   -0.052216
  18 C :    0.045718
  19 C :    0.058017
  20 C :   -0.067603
  21 C :    0.045207
  22 C :    0.107530
  23 C :    0.062003
  24 C :    0.022167
  25 C :    0.042896
  26 C :    0.029851
  27 C :    0.010025
  28 C :   -0.088924
  29 C :   -0.049676
  30 C :    0.023033
  31 C :    0.020600
  32 C :    0.303116
  33 C :    0.111700
  34 C :    0.124097
  35 C :    0.022223
  36 C :    0.014045
  37 C :   -0.011434
  38 C :    0.004199
  39 C :    0.007281
  40 C :    0.027789
  41 H :    0.012312
  42 H :    0.037270
  43 H :   -0.007312
  44 H :    0.006820
  45 H :   -0.005453
  46 H :   -0.003182
  47 H :   -0.010427
  48 H :   -0.008176
  49 H :    0.002036
  50 H :    0.000024
  51 H :    0.029924
  52 H :   -0.004593
  53 H :   -0.004258
  54 H :    0.034150
  55 H :    0.009577
  56 H :    0.047314
  57 H :    0.036147
  58 H :    0.007372
  59 H :   -0.010521
  60 H :    0.151961
  61 H :   -0.011669
  62 H :   -0.035846
  63 H :    0.112872
  64 H :    0.010047
  65 H :   -0.005130
  66 H :    0.164301
  67 H :   -0.015590
  68 H :   -0.020960
  69 H :   -0.017736
  70 H :   -0.016532
  71 H :   -0.028162
  72 H :    0.176075
  73 H :   -0.019733
  74 H :   -0.022336
  75 H :   -0.023738
Sum of atomic charges:   -0.0000000

LOEWDIN ATOMIC CHARGES
----------------------
   0 F :   -0.066282
   1 O :   -0.125501
   2 O :   -0.118089
   3 O :   -0.188828
   4 O :   -0.037003
   5 O :   -0.206149
   6 N :    0.044961
   7 N :   -0.022173
   8 C :    0.024133
   9 C :    0.050213
  10 C :   -0.014128
  11 C :   -0.043853
  12 C :   -0.044431
  13 C :   -0.114233
  14 C :   -0.059920
  15 C :    0.066785
  16 C :   -0.046924
  17 C :   -0.045877
  18 C :   -0.040788
  19 C :   -0.043487
  20 C :   -0.029740
  21 C :    0.067546
  22 C :    0.095368
  23 C :   -0.068053
  24 C :   -0.006670
  25 C :    0.000905
  26 C :   -0.014685
  27 C :   -0.029158
  28 C :   -0.059377
  29 C :   -0.049853
  30 C :   -0.019785
  31 C :   -0.026905
  32 C :    0.085948
  33 C :    0.030978
  34 C :    0.103125
  35 C :   -0.030288
  36 C :   -0.024888
  37 C :   -0.046736
  38 C :   -0.022238
  39 C :   -0.024640
  40 C :   -0.039356
  41 H :    0.027471
  42 H :    0.032626
  43 H :    0.028952
  44 H :    0.028258
  45 H :    0.022841
  46 H :    0.008657
  47 H :    0.022151
  48 H :    0.024185
  49 H :    0.019564
  50 H :    0.021269
  51 H :    0.027510
  52 H :    0.017396
  53 H :    0.018659
  54 H :    0.028276
  55 H :    0.012146
  56 H :    0.053666
  57 H :    0.049975
  58 H :    0.029332
  59 H :    0.035961
  60 H :    0.063091
  61 H :    0.033594
  62 H :    0.023613
  63 H :    0.068204
  64 H :    0.038360
  65 H :    0.038007
  66 H :    0.061238
  67 H :    0.028922
  68 H :    0.026619
  69 H :    0.026919
  70 H :    0.032464
  71 H :    0.027846
  72 H :    0.084901
  73 H :    0.027080
  74 H :    0.026012
  75 H :    0.024313

  Mayer bond orders larger than 0.100000
B(  0-F , 32-C ) :   1.0806 B(  1-O , 15-C ) :   1.0392 B(  1-O , 60-H ) :   0.9873
B(  2-O , 21-C ) :   1.0367 B(  2-O , 66-H ) :   0.9775 B(  3-O , 22-C ) :   2.0574
B(  4-O , 34-C ) :   1.2439 B(  4-O , 72-H ) :   0.9481 B(  5-O , 34-C ) :   2.0325
B(  6-N ,  8-C ) :   1.1876 B(  6-N ,  9-C ) :   0.9642 B(  6-N , 10-C ) :   1.1594
B(  7-N , 22-C ) :   1.1129 B(  7-N , 33-C ) :   1.0164 B(  7-N , 63-H ) :   0.9237
B(  8-C , 11-C ) :   1.0354 B(  8-C , 13-C ) :   1.4901 B(  9-C , 12-C ) :   1.0894
B(  9-C , 41-H ) :   0.9271 B(  9-C , 42-H ) :   0.9280 B( 10-C , 14-C ) :   1.5318
B( 10-C , 17-C ) :   0.9512 B( 11-C , 18-C ) :   1.0760 B( 11-C , 19-C ) :   1.0780
B( 11-C , 43-H ) :   0.8817 B( 12-C , 15-C ) :   1.0436 B( 12-C , 44-H ) :   0.9087
B( 12-C , 45-H ) :   0.9279 B( 13-C , 14-C ) :   1.3262 B( 13-C , 22-C ) :   0.8814
B( 14-C , 20-C ) :   0.9530 B( 15-C , 16-C ) :   1.0499 B( 15-C , 46-H ) :   0.9208
B( 16-C , 21-C ) :   1.0357 B( 16-C , 47-H ) :   0.9115 B( 16-C , 48-H ) :   0.9221
B( 17-C , 24-C ) :   1.3960 B( 17-C , 25-C ) :   1.4024 B( 18-C , 49-H ) :   0.9625
B( 18-C , 50-H ) :   0.9564 B( 18-C , 51-H ) :   0.9625 B( 19-C , 52-H ) :   0.9588
B( 19-C , 53-H ) :   0.9585 B( 19-C , 54-H ) :   0.9546 B( 20-C , 26-C ) :   1.3915
B( 20-C , 27-C ) :   1.3828 B( 21-C , 23-C ) :   1.0096 B( 21-C , 55-H ) :   0.9147
B( 23-C , 34-C ) :   0.9695 B( 23-C , 56-H ) :   0.9060 B( 23-C , 57-H ) :   0.9108
B( 24-C , 28-C ) :   1.3360 B( 24-C , 58-H ) :   0.9650 B( 25-C , 29-C ) :   1.3322
B( 25-C , 59-H ) :   0.9868 B( 26-C , 30-C ) :   1.3681 B( 26-C , 61-H ) :   0.9888
B( 27-C , 31-C ) :   1.3602 B( 27-C , 62-H ) :   0.9860 B( 28-C , 32-C ) :   1.3331
B( 28-C , 64-H ) :   0.9795 B( 29-C , 32-C ) :   1.3475 B( 29-C , 65-H ) :   0.9880
B( 30-C , 35-C ) :   1.3780 B( 30-C , 67-H ) :   0.9833 B( 31-C , 35-C ) :   1.3810
B( 31-C , 68-H ) :   0.9834 B( 33-C , 36-C ) :   1.3895 B( 33-C , 37-C ) :   1.3750
B( 35-C , 69-H ) :   0.9862 B( 36-C , 38-C ) :   1.3820 B( 36-C , 70-H ) :   0.9876
B( 37-C , 39-C ) :   1.3815 B( 37-C , 71-H ) :   0.9832 B( 38-C , 40-C ) :   1.3765
B( 38-C , 73-H ) :   0.9812 B( 39-C , 40-C ) :   1.3870 B( 39-C , 74-H ) :   0.9796
B( 40-C , 75-H ) :   0.9863

FINAL SINGLE POINT ENERGY     -1861.634291696256

DIPOLE MOMENT
-------------
                                X             Y             Z
Electronic contribution:     -7.77257      26.53028      -5.17890
Nuclear contribution   :      5.88330     -26.48916       6.16892
                        -----------------------------------------
Total Dipole Moment    :     -1.88927       0.04112       0.99002
                        -----------------------------------------
Magnitude (a.u.)       :      2.13335
Magnitude (Debye)      :      5.42254

Rotational constants in cm-1:     0.003863     0.001633     0.001468
Rotational constants in MHz :   115.797775    48.942613    44.012024

                             ****ORCA TERMINATED NORMALLY****
TOTAL RUN TIME: 0 days 0 hours 9 minutes 46 seconds 297 msec
