                         Program Version 5.0.4 -  RELEASE  -
|  1> # avogadro generated ORCA input file
|  2> # Basic Mode
|  3> #
|  4> !B3LYP DEF2-SVP
|  5>
|  6> %PAL NPROCS 3 END
|  7>
|  8> * xyz 0 1
|  9> O         -0.40400       -2.13600       -2.42300
| 10> O          2.21800        0.48900       -0.24200
| 11> O         -8.17900        0.30800       -1.35100
| 12> O          3.54900        1.73400        0.75100
| 13> O          2.63200        2.03800       -2.81700
| 14> O          3.77800        4.62700       -2.30700
| 15> O          5.17900        4.99000        0.16700
| 16> O          5.22800        2.03800        3.13000
| 17> C         -2.31800       -0.03200        0.81100
| 18> C         -1.11700       -0.99100        1.08500
| 19> C         -3.19600       -0.74600       -0.26600
| 20> C         -4.56600       -0.06600       -0.57200
| 21> C         -0.28900       -1.10100       -0.23300
| 22> C         -5.29400        0.07800        0.78900
| 23> C         -3.16200        0.18600        2.07900
| 24> C          1.10700       -1.58900        0.19700
| 25> C         -2.40400       -1.04500       -1.54000
| 26> C         -1.14000       -1.88700       -1.24500
| 27> C         -0.06100       -0.49700        2.08400
| 28> C         -4.45000        0.92000        1.74300
| 29> C         -6.77600        0.52800        0.71800
| 30> C          1.17800       -1.30900        1.71900
| 31> C         -5.40300       -0.98900       -1.49400
| 32> C         -1.77800        1.33700        0.38600
| 33> C         -1.62000       -2.34600        1.60200
| 34> C         -4.36000        1.26900       -1.28200
| 35> C          2.32200       -0.92600       -0.53000
| 36> C         -7.55300       -0.38300       -0.29800
| 37> C         -6.65700       -1.51500       -0.82300
| 38> C         -7.39000        0.30000        2.10800
| 39> C         -6.93600        2.01100        0.39300
| 40> C          3.63200       -1.51400        0.05900
| 41> C          2.29400       -1.14400       -2.04500
| 42> C          3.77800       -3.00600       -0.19200
| 43> C          3.31700        1.29000       -0.57200
| 44> C          2.89900        2.46800       -1.51100
| 45> C          4.85700       -3.59200        0.64400
| 46> C          4.02300        3.54200       -1.45400
| 47> C          4.56900        2.72000        0.87100
| 48> C          4.21900        3.97700        0.02700
| 49> C          5.83000       -4.38800        0.18100
| 50> C          4.64500        3.06300        2.37500
| 51> C          5.96600       -4.78100       -1.24500
| 52> C          6.86300       -4.95000        1.09400
| 53> H         -3.45900       -1.74800        0.18000
| 54> H         -0.15900       -0.06900       -0.66200
| 55> H         -5.33900       -0.96300        1.22000
| 56> H         -3.37400       -0.79300        2.56500
| 57> H         -2.57500        0.76200        2.82200
| 58> H          1.20900       -2.69000        0.00800
| 59> H         -2.15200       -0.09100       -2.05700
| 60> H         -3.06600       -1.59800       -2.24600
| 61> H         -1.44000       -2.87700       -0.80500
| 62> H         -0.36900       -0.64300        3.13500
| 63> H          0.11200        0.59400        1.96000
| 64> H         -5.03000        1.14700        2.66300
| 65> H         -4.19900        1.89700        1.26200
| 66> H          2.11800       -0.79300        2.00500
| 67> H          1.19200       -2.26700        2.27700
| 68> H         -5.68000       -0.45100       -2.42600
| 69> H         -4.78500       -1.84500       -1.84900
| 70> H         -1.32700        1.30400       -0.61800
| 71> H         -2.57500        2.10100        0.38700
| 72> H         -0.99300        1.67500        1.08400
| 73> H         -2.26800       -2.20300        2.48200
| 74> H         -0.79300       -3.00800        1.89100
| 75> H         -2.21500       -2.87700        0.83800
| 76> H         -5.29200        1.65200       -1.72700
| 77> H         -3.60300        1.17200       -2.07600
| 78> H         -4.01000        2.04200       -0.57200
| 79> H         -8.44800       -0.82700        0.20100
| 80> H         -7.22400       -2.15100       -1.53100
| 81> H         -6.38000       -2.17000        0.03000
| 82> H         -6.78900        0.80800        2.88200
| 83> H         -7.42400       -0.76600        2.37100
| 84> H         -8.41400        0.69000        2.16700
| 85> H         -6.48900        2.27500       -0.57900
| 86> H         -6.44900        2.63700        1.15400
| 87> H         -7.99500        2.30000        0.36000
| 88> H         -1.01500       -2.50500       -3.04700
| 89> H          3.64700       -1.30100        1.15300
| 90> H          4.50400       -0.96800       -0.36700
| 91> H          2.11500       -2.20000       -2.28800
| 92> H          1.50300       -0.55000       -2.52400
| 93> H          3.24600       -0.85700       -2.51300
| 94> H         -7.49800        0.72600       -1.86600
| 95> H          2.81400       -3.51700        0.04200
| 96> H          3.96500       -3.20200       -1.27300
| 97> H          4.20300        0.72600       -0.97500
| 98> H          1.91500        2.89500       -1.20700
| 99> H          4.81800       -3.34200        1.71300
|100> H          4.97500        3.14000       -1.87700
|101> H          5.53900        2.28500        0.52200
|102> H          3.30200        4.47400        0.42200
|103> H          3.43200        1.66600       -3.17100
|104> H          5.32400        3.91800        2.54200
|105> H          3.64700        3.33300        2.77300
|106> H          2.96500        5.03300       -2.03000
|107> H          6.97200       -4.55100       -1.62000
|108> H          5.23900       -4.26000       -1.88900
|109> H          5.80500       -5.86100       -1.36600
|110> H          6.71300       -4.65000        2.13900
|111> H          7.86600       -4.61800        0.79300
|112> H          6.85300       -6.04800        1.05900
|113> H          5.98100        4.68800       -0.24300
|114> H          4.65500        1.28300        3.07400
|115> *
|116>
|117>
|118>
|119>                          ****END OF INPUT****

CARTESIAN COORDINATES (ANGSTROEM)
---------------------------------
  O     -0.404000   -2.136000   -2.423000
  O      2.218000    0.489000   -0.242000
  O     -8.179000    0.308000   -1.351000
  O      3.549000    1.734000    0.751000
  O      2.632000    2.038000   -2.817000
  O      3.778000    4.627000   -2.307000
  O      5.179000    4.990000    0.167000
  O      5.228000    2.038000    3.130000
  C     -2.318000   -0.032000    0.811000
  C     -1.117000   -0.991000    1.085000
  C     -3.196000   -0.746000   -0.266000
  C     -4.566000   -0.066000   -0.572000
  C     -0.289000   -1.101000   -0.233000
  C     -5.294000    0.078000    0.789000
  C     -3.162000    0.186000    2.079000
  C      1.107000   -1.589000    0.197000
  C     -2.404000   -1.045000   -1.540000
  C     -1.140000   -1.887000   -1.245000
  C     -0.061000   -0.497000    2.084000
  C     -4.450000    0.920000    1.743000
  C     -6.776000    0.528000    0.718000
  C      1.178000   -1.309000    1.719000
  C     -5.403000   -0.989000   -1.494000
  C     -1.778000    1.337000    0.386000
  C     -1.620000   -2.346000    1.602000
  C     -4.360000    1.269000   -1.282000
  C      2.322000   -0.926000   -0.530000
  C     -7.553000   -0.383000   -0.298000
  C     -6.657000   -1.515000   -0.823000
  C     -7.390000    0.300000    2.108000
  C     -6.936000    2.011000    0.393000
  C      3.632000   -1.514000    0.059000
  C      2.294000   -1.144000   -2.045000
  C      3.778000   -3.006000   -0.192000
  C      3.317000    1.290000   -0.572000
  C      2.899000    2.468000   -1.511000
  C      4.857000   -3.592000    0.644000
  C      4.023000    3.542000   -1.454000
  C      4.569000    2.720000    0.871000
  C      4.219000    3.977000    0.027000
  C      5.830000   -4.388000    0.181000
  C      4.645000    3.063000    2.375000
  C      5.966000   -4.781000   -1.245000
  C      6.863000   -4.950000    1.094000
  H     -3.459000   -1.748000    0.180000
  H     -0.159000   -0.069000   -0.662000
  H     -5.339000   -0.963000    1.220000
  H     -3.374000   -0.793000    2.565000
  H     -2.575000    0.762000    2.822000
  H      1.209000   -2.690000    0.008000
  H     -2.152000   -0.091000   -2.057000
  H     -3.066000   -1.598000   -2.246000
  H     -1.440000   -2.877000   -0.805000
  H     -0.369000   -0.643000    3.135000
  H      0.112000    0.594000    1.960000
  H     -5.030000    1.147000    2.663000
  H     -4.199000    1.897000    1.262000
  H      2.118000   -0.793000    2.005000
  H      1.192000   -2.267000    2.277000
  H     -5.680000   -0.451000   -2.426000
  H     -4.785000   -1.845000   -1.849000
  H     -1.327000    1.304000   -0.618000
  H     -2.575000    2.101000    0.387000
  H     -0.993000    1.675000    1.084000
  H     -2.268000   -2.203000    2.482000
  H     -0.793000   -3.008000    1.891000
  H     -2.215000   -2.877000    0.838000
  H     -5.292000    1.652000   -1.727000
  H     -3.603000    1.172000   -2.076000
  H     -4.010000    2.042000   -0.572000
  H     -8.448000   -0.827000    0.201000
  H     -7.224000   -2.151000   -1.531000
  H     -6.380000   -2.170000    0.030000
  H     -6.789000    0.808000    2.882000
  H     -7.424000   -0.766000    2.371000
  H     -8.414000    0.690000    2.167000
  H     -6.489000    2.275000   -0.579000
  H     -6.449000    2.637000    1.154000
  H     -7.995000    2.300000    0.360000
  H     -1.015000   -2.505000   -3.047000
  H      3.647000   -1.301000    1.153000
  H      4.504000   -0.968000   -0.367000
  H      2.115000   -2.200000   -2.288000
  H      1.503000   -0.550000   -2.524000
  H      3.246000   -0.857000   -2.513000
  H     -7.498000    0.726000   -1.866000
  H      2.814000   -3.517000    0.042000
  H      3.965000   -3.202000   -1.273000
  H      4.203000    0.726000   -0.975000
  H      1.915000    2.895000   -1.207000
  H      4.818000   -3.342000    1.713000
  H      4.975000    3.140000   -1.877000
  H      5.539000    2.285000    0.522000
  H      3.302000    4.474000    0.422000
  H      3.432000    1.666000   -3.171000
  H      5.324000    3.918000    2.542000
  H      3.647000    3.333000    2.773000
  H      2.965000    5.033000   -2.030000
  H      6.972000   -4.551000   -1.620000
  H      5.239000   -4.260000   -1.889000
  H      5.805000   -5.861000   -1.366000
  H      6.713000   -4.650000    2.139000
  H      7.866000   -4.618000    0.793000
  H      6.853000   -6.048000    1.059000
  H      5.981000    4.688000   -0.243000
  H      4.655000    1.283000    3.074000

 Total Charge           Charge          ....    0
 Multiplicity           Mult            ....    1
 Number of Electrons    NEL             ....  342
 Basis Dimension        Dim             ....  926

ORBITAL ENERGIES
----------------

  NO   OCC          E(Eh)            E(eV)
   0   2.0000     -19.144626      -520.9518
   1   2.0000     -19.138494      -520.7849
   2   2.0000     -19.136949      -520.7428
   3   2.0000     -19.132176      -520.6130
   4   2.0000     -19.130957      -520.5798
   5   2.0000     -19.124178      -520.3953
   6   2.0000     -19.119407      -520.2655
   7   2.0000     -19.118363      -520.2371
   8   2.0000     -10.289840      -280.0008
   9   2.0000     -10.244822      -278.7758
  10   2.0000     -10.242848      -278.7221
  11   2.0000     -10.242596      -278.7152
  12   2.0000     -10.237593      -278.5791
  13   2.0000     -10.234671      -278.4995
  14   2.0000     -10.227738      -278.3109
  15   2.0000     -10.225045      -278.2376
  16   2.0000     -10.221780      -278.1488
  17   2.0000     -10.190641      -277.3014
  18   2.0000     -10.186623      -277.1921
  19   2.0000     -10.186346      -277.1846
  20   2.0000     -10.183472      -277.1064
  21   2.0000     -10.183464      -277.1061
  22   2.0000     -10.180247      -277.0186
  23   2.0000     -10.180080      -277.0141
  24   2.0000     -10.179913      -277.0095
  25   2.0000     -10.179055      -276.9862
  26   2.0000     -10.179041      -276.9858
  27   2.0000     -10.178678      -276.9759
  28   2.0000     -10.178590      -276.9735
  29   2.0000     -10.178229      -276.9637
  30   2.0000     -10.176128      -276.9065
  31   2.0000     -10.176112      -276.9061
  32   2.0000     -10.173831      -276.8440
  33   2.0000     -10.173661      -276.8394
  34   2.0000     -10.172888      -276.8183
  35   2.0000     -10.172258      -276.8012
  36   2.0000     -10.170654      -276.7576
  37   2.0000     -10.170110      -276.7428
  38   2.0000     -10.169623      -276.7295
  39   2.0000     -10.169152      -276.7167
  40   2.0000     -10.168171      -276.6900
  41   2.0000     -10.167069      -276.6600
  42   2.0000     -10.166387      -276.6414
  43   2.0000     -10.159605      -276.4569
  44   2.0000      -1.072506       -29.1844
  45   2.0000      -1.036803       -28.2128
  46   2.0000      -1.026413       -27.9301
  47   2.0000      -1.011209       -27.5164
  48   2.0000      -1.008692       -27.4479
  49   2.0000      -1.008313       -27.4376
  50   2.0000      -1.008283       -27.4368
  51   2.0000      -0.991177       -26.9713
  52   2.0000      -0.868411       -23.6307
  53   2.0000      -0.843868       -22.9628
  54   2.0000      -0.817880       -22.2556
  55   2.0000      -0.805838       -21.9280
  56   2.0000      -0.791107       -21.5271
  57   2.0000      -0.783758       -21.3271
  58   2.0000      -0.770036       -20.9538
  59   2.0000      -0.762177       -20.7399
  60   2.0000      -0.756442       -20.5838
  61   2.0000      -0.747132       -20.3305
  62   2.0000      -0.730260       -19.8714
  63   2.0000      -0.720283       -19.5999
  64   2.0000      -0.710959       -19.3462
  65   2.0000      -0.700951       -19.0739
  66   2.0000      -0.684174       -18.6173
  67   2.0000      -0.674886       -18.3646
  68   2.0000      -0.673625       -18.3303
  69   2.0000      -0.667278       -18.1576
  70   2.0000      -0.666554       -18.1379
  71   2.0000      -0.663459       -18.0536
  72   2.0000      -0.660562       -17.9748
  73   2.0000      -0.645668       -17.5695
  74   2.0000      -0.640086       -17.4176
  75   2.0000      -0.627199       -17.0670
  76   2.0000      -0.610158       -16.6032
  77   2.0000      -0.608577       -16.5602
  78   2.0000      -0.603900       -16.4329
  79   2.0000      -0.597174       -16.2499
  80   2.0000      -0.590092       -16.0572
  81   2.0000      -0.571923       -15.5628
  82   2.0000      -0.558768       -15.2049
  83   2.0000      -0.546639       -14.8748
  84   2.0000      -0.541982       -14.7481
  85   2.0000      -0.538141       -14.6436
  86   2.0000      -0.529255       -14.4018
  87   2.0000      -0.522646       -14.2219
  88   2.0000      -0.514738       -14.0067
  89   2.0000      -0.513485       -13.9726
  90   2.0000      -0.507017       -13.7966
  91   2.0000      -0.498048       -13.5526
  92   2.0000      -0.495842       -13.4925
  93   2.0000      -0.494345       -13.4518
  94   2.0000      -0.487490       -13.2653
  95   2.0000      -0.481184       -13.0937
  96   2.0000      -0.480707       -13.0807
  97   2.0000      -0.474072       -12.9002
  98   2.0000      -0.471429       -12.8282
  99   2.0000      -0.466887       -12.7046
 100   2.0000      -0.465392       -12.6639
 101   2.0000      -0.460445       -12.5293
 102   2.0000      -0.455401       -12.3921
 103   2.0000      -0.451732       -12.2922
 104   2.0000      -0.444455       -12.0942
 105   2.0000      -0.444172       -12.0865
 106   2.0000      -0.435528       -11.8513
 107   2.0000      -0.434112       -11.8128
 108   2.0000      -0.433839       -11.8053
 109   2.0000      -0.430952       -11.7268
 110   2.0000      -0.426792       -11.6136
 111   2.0000      -0.425886       -11.5889
 112   2.0000      -0.423362       -11.5203
 113   2.0000      -0.418738       -11.3944
 114   2.0000      -0.413884       -11.2624
 115   2.0000      -0.410963       -11.1829
 116   2.0000      -0.407765       -11.0958
 117   2.0000      -0.406408       -11.0589
 118   2.0000      -0.403934       -10.9916
 119   2.0000      -0.400947       -10.9103
 120   2.0000      -0.396658       -10.7936
 121   2.0000      -0.394936       -10.7468
 122   2.0000      -0.391086       -10.6420
 123   2.0000      -0.385058       -10.4780
 124   2.0000      -0.384195       -10.4545
 125   2.0000      -0.381387       -10.3781
 126   2.0000      -0.378884       -10.3100
 127   2.0000      -0.376436       -10.2433
 128   2.0000      -0.373997       -10.1770
 129   2.0000      -0.372407       -10.1337
 130   2.0000      -0.369439       -10.0530
 131   2.0000      -0.368597       -10.0300
 132   2.0000      -0.366439        -9.9713
 133   2.0000      -0.362677        -9.8689
 134   2.0000      -0.360352        -9.8057
 135   2.0000      -0.358561        -9.7569
 136   2.0000      -0.358000        -9.7417
 137   2.0000      -0.356190        -9.6924
 138   2.0000      -0.353607        -9.6221
 139   2.0000      -0.349463        -9.5094
 140   2.0000      -0.346013        -9.4155
 141   2.0000      -0.341564        -9.2944
 142   2.0000      -0.340813        -9.2740
 143   2.0000      -0.338543        -9.2122
 144   2.0000      -0.337444        -9.1823
 145   2.0000      -0.336377        -9.1533
 146   2.0000      -0.332072        -9.0361
 147   2.0000      -0.331400        -9.0179
 148   2.0000      -0.328822        -8.9477
 149   2.0000      -0.327243        -8.9047
 150   2.0000      -0.321826        -8.7573
 151   2.0000      -0.319445        -8.6925
 152   2.0000      -0.312919        -8.5150
 153   2.0000      -0.310808        -8.4575
 154   2.0000      -0.309230        -8.4146
 155   2.0000      -0.305569        -8.3150
 156   2.0000      -0.299956        -8.1622
 157   2.0000      -0.298472        -8.1218
 158   2.0000      -0.297283        -8.0895
 159   2.0000      -0.295849        -8.0505
 160   2.0000      -0.289702        -7.8832
 161   2.0000      -0.287572        -7.8252
 162   2.0000      -0.279352        -7.6016
 163   2.0000      -0.274522        -7.4701
 164   2.0000      -0.270293        -7.3550
 165   2.0000      -0.266730        -7.2581
 166   2.0000      -0.257468        -7.0061
 167   2.0000      -0.253019        -6.8850
 168   2.0000      -0.251693        -6.8489
 169   2.0000      -0.248445        -6.7605
 170   2.0000      -0.230287        -6.2664
 171   0.0000       0.023658         0.6438
 172   0.0000       0.030305         0.8246
 173   0.0000       0.033875         0.9218
 174   0.0000       0.042479         1.1559
 175   0.0000       0.046806         1.2737

MULLIKEN ATOMIC CHARGES
-----------------------
   0 O :   -0.260339
   1 O :   -0.359192
   2 O :   -0.284024
   3 O :   -0.364203
   4 O :   -0.265555
   5 O :   -0.268686
   6 O :   -0.274231
   7 O :   -0.308179
   8 C :   -0.212072
   9 C :   -0.303909
  10 C :   -0.010759
  11 C :   -0.245163
  12 C :    0.009110
  13 C :    0.033200
  14 C :    0.135989
  15 C :   -0.000253
  16 C :    0.096462
  17 C :    0.202627
  18 C :    0.148698
  19 C :    0.119216
  20 C :   -0.265187
  21 C :    0.091685
  22 C :    0.069378
  23 C :    0.123682
  24 C :    0.102501
  25 C :    0.133201
  26 C :   -0.065552
  27 C :    0.171468
  28 C :    0.127545
  29 C :    0.096852
  30 C :    0.106159
  31 C :    0.067721
  32 C :    0.149635
  33 C :    0.099634
  34 C :    0.308955
  35 C :    0.178940
  36 C :   -0.070041
  37 C :    0.148263
  38 C :    0.087540
  39 C :    0.137358
  40 C :   -0.186403
  41 C :    0.283161
  42 C :    0.101796
  43 C :    0.087130
  44 H :   -0.035001
  45 H :    0.005487
  46 H :   -0.040187
  47 H :   -0.026666
  48 H :   -0.018975
  49 H :   -0.018503
  50 H :   -0.005239
  51 H :   -0.033784
  52 H :   -0.035065
  53 H :   -0.018885
  54 H :   -0.006372
  55 H :   -0.015429
  56 H :   -0.016878
  57 H :   -0.003384
  58 H :   -0.018428
  59 H :   -0.025863
  60 H :   -0.006116
  61 H :    0.006332
  62 H :   -0.016222
  63 H :   -0.002306
  64 H :   -0.000058
  65 H :   -0.009021
  66 H :    0.015082
  67 H :   -0.013546
  68 H :   -0.005767
  69 H :   -0.006700
  70 H :   -0.022993
  71 H :   -0.005974
  72 H :   -0.024766
  73 H :   -0.007824
  74 H :   -0.004048
  75 H :    0.003603
  76 H :   -0.019931
  77 H :   -0.000916
  78 H :    0.008352
  79 H :    0.147457
  80 H :   -0.009378
  81 H :   -0.010420
  82 H :    0.008117
  83 H :    0.016974
  84 H :   -0.039617
  85 H :    0.141654
  86 H :    0.012217
  87 H :   -0.000332
  88 H :   -0.028257
  89 H :   -0.010552
  90 H :   -0.030199
  91 H :   -0.036965
  92 H :   -0.032367
  93 H :   -0.015802
  94 H :    0.153067
  95 H :   -0.000313
  96 H :   -0.008794
  97 H :    0.153752
  98 H :    0.007385
  99 H :   -0.009079
 100 H :    0.014340
 101 H :    0.000564
 102 H :    0.009953
 103 H :    0.008954
 104 H :    0.153723
 105 H :    0.155749
Sum of atomic charges:   -0.0000000

LOEWDIN ATOMIC CHARGES
----------------------
   0 O :   -0.106215
   1 O :   -0.139741
   2 O :   -0.107273
   3 O :   -0.158592
   4 O :   -0.092827
   5 O :   -0.104102
   6 O :   -0.100817
   7 O :   -0.126549
   8 C :   -0.032753
   9 C :   -0.032368
  10 C :   -0.012973
  11 C :   -0.038617
  12 C :   -0.021304
  13 C :   -0.017058
  14 C :   -0.016618
  15 C :   -0.019135
  16 C :   -0.039464
  17 C :    0.064721
  18 C :   -0.017846
  19 C :   -0.025740
  20 C :   -0.061899
  21 C :   -0.023918
  22 C :   -0.024957
  23 C :   -0.039630
  24 C :   -0.041869
  25 C :   -0.039321
  26 C :    0.057036
  27 C :    0.070063
  28 C :   -0.042941
  29 C :   -0.035647
  30 C :   -0.042954
  31 C :   -0.031547
  32 C :   -0.056861
  33 C :   -0.033469
  34 C :    0.127178
  35 C :    0.025221
  36 C :   -0.054129
  37 C :    0.018919
  38 C :    0.025634
  39 C :    0.031218
  40 C :   -0.045291
  41 C :    0.068205
  42 C :   -0.046016
  43 C :   -0.043062
  44 H :    0.020739
  45 H :    0.029487
  46 H :    0.016253
  47 H :    0.015513
  48 H :    0.017958
  49 H :    0.020770
  50 H :    0.018976
  51 H :    0.012412
  52 H :    0.001976
  53 H :    0.014545
  54 H :    0.020268
  55 H :    0.018530
  56 H :    0.016110
  57 H :    0.019241
  58 H :    0.014415
  59 H :    0.012866
  60 H :    0.022034
  61 H :    0.018768
  62 H :    0.015336
  63 H :    0.023839
  64 H :    0.021585
  65 H :    0.020376
  66 H :    0.012366
  67 H :    0.008334
  68 H :    0.021513
  69 H :    0.017862
  70 H :    0.018369
  71 H :    0.023119
  72 H :    0.020273
  73 H :    0.016550
  74 H :    0.015716
  75 H :    0.020497
  76 H :    0.013281
  77 H :    0.020818
  78 H :    0.023944
  79 H :    0.059455
  80 H :    0.019560
  81 H :    0.016492
  82 H :    0.022844
  83 H :    0.025154
  84 H :    0.002865
  85 H :    0.049015
  86 H :    0.029109
  87 H :    0.024418
  88 H :   -0.006881
  89 H :    0.025813
  90 H :    0.017317
  91 H :    0.010388
  92 H :    0.001979
  93 H :    0.020193
  94 H :    0.061407
  95 H :    0.020823
  96 H :    0.008365
  97 H :    0.066167
  98 H :    0.027507
  99 H :    0.023709
 100 H :    0.031118
 101 H :    0.024649
 102 H :    0.026887
 103 H :    0.026833
 104 H :    0.064192
 105 H :    0.061289

  Mayer bond orders larger than 0.100000
B(  0-O , 17-C ) :   1.0605 B(  0-O , 79-H ) :   0.9817 B(  1-O , 26-C ) :   0.9193
B(  1-O , 34-C ) :   1.0257 B(  2-O , 27-C ) :   1.0586 B(  2-O , 85-H ) :   0.9901
B(  3-O , 34-C ) :   0.9959 B(  3-O , 38-C ) :   0.9645 B(  4-O , 35-C ) :   1.0464
B(  4-O , 94-H ) :   0.9847 B(  5-O , 37-C ) :   1.0620 B(  5-O , 97-H ) :   0.9913
B(  6-O , 39-C ) :   1.0306 B(  6-O ,104-H ) :   0.9883 B(  7-O , 41-C ) :   1.0564
B(  7-O ,105-H ) :   0.9885 B(  8-C ,  9-C ) :   0.9725 B(  8-C , 10-C ) :   1.0114
B(  8-C , 14-C ) :   1.0427 B(  8-C , 23-C ) :   1.0541 B(  9-C , 12-C ) :   0.9995
B(  9-C , 18-C ) :   1.0375 B(  9-C , 24-C ) :   1.0247 B( 10-C , 11-C ) :   0.9849
B( 10-C , 16-C ) :   1.0565 B( 10-C , 44-H ) :   0.8680 B( 11-C , 13-C ) :   1.0508
B( 11-C , 22-C ) :   0.9958 B( 11-C , 25-C ) :   1.0608 B( 12-C , 15-C ) :   1.0151
B( 12-C , 17-C ) :   1.0299 B( 12-C , 45-H ) :   0.8790 B( 13-C , 19-C ) :   1.0510
B( 13-C , 20-C ) :   1.0114 B( 13-C , 28-C ) :   0.1044 B( 13-C , 46-H ) :   0.8453
B( 14-C , 19-C ) :   1.1081 B( 14-C , 47-H ) :   0.9033 B( 14-C , 48-H ) :   0.9174
B( 15-C , 21-C ) :   1.0790 B( 15-C , 26-C ) :   0.9964 B( 15-C , 49-H ) :   0.8726
B( 16-C , 17-C ) :   1.0643 B( 16-C , 50-H ) :   0.8922 B( 16-C , 51-H ) :   0.9007
B( 17-C , 52-H ) :   0.8951 B( 18-C , 21-C ) :   1.1175 B( 18-C , 53-H ) :   0.9185
B( 18-C , 54-H ) :   0.9052 B( 19-C , 55-H ) :   0.9079 B( 19-C , 56-H ) :   0.9001
B( 20-C , 27-C ) :   0.8976 B( 20-C , 29-C ) :   1.0397 B( 20-C , 30-C ) :   1.0727
B( 21-C , 57-H ) :   0.9082 B( 21-C , 58-H ) :   0.9101 B( 22-C , 28-C ) :   1.1240
B( 22-C , 59-H ) :   0.9176 B( 22-C , 60-H ) :   0.8986 B( 23-C , 61-H ) :   0.9418
B( 23-C , 62-H ) :   0.9371 B( 23-C , 63-H ) :   0.9405 B( 24-C , 64-H ) :   0.9476
B( 24-C , 65-H ) :   0.9468 B( 24-C , 66-H ) :   0.9406 B( 25-C , 67-H ) :   0.9360
B( 25-C , 68-H ) :   0.9365 B( 25-C , 69-H ) :   0.9463 B( 26-C , 31-C ) :   1.0327
B( 26-C , 32-C ) :   1.0752 B( 27-C , 28-C ) :   1.1051 B( 27-C , 70-H ) :   0.9065
B( 28-C , 71-H ) :   0.9193 B( 28-C , 72-H ) :   0.8847 B( 29-C , 73-H ) :   0.9555
B( 29-C , 74-H ) :   0.9551 B( 29-C , 75-H ) :   0.9555 B( 30-C , 76-H ) :   0.9474
B( 30-C , 77-H ) :   0.9482 B( 30-C , 78-H ) :   0.9464 B( 31-C , 33-C ) :   1.0521
B( 31-C , 80-H ) :   0.9230 B( 31-C , 81-H ) :   0.9090 B( 32-C , 82-H ) :   0.9300
B( 32-C , 83-H ) :   0.9341 B( 32-C , 84-H ) :   0.9372 B( 33-C , 36-C ) :   1.0293
B( 33-C , 86-H ) :   0.9029 B( 33-C , 87-H ) :   0.9187 B( 34-C , 35-C ) :   0.9554
B( 34-C , 88-H ) :   0.8881 B( 35-C , 37-C ) :   0.9790 B( 35-C , 89-H ) :   0.8819
B( 36-C , 40-C ) :   1.8951 B( 36-C , 90-H ) :   0.9510 B( 37-C , 39-C ) :   0.9802
B( 37-C , 91-H ) :   0.8844 B( 38-C , 39-C ) :   0.9589 B( 38-C , 41-C ) :   1.0125
B( 38-C , 92-H ) :   0.8945 B( 39-C , 93-H ) :   0.8916 B( 40-C , 42-C ) :   1.0982
B( 40-C , 43-C ) :   1.0726 B( 41-C , 95-H ) :   0.9334 B( 41-C , 96-H ) :   0.9330
B( 42-C , 98-H ) :   0.9449 B( 42-C , 99-H ) :   0.9466 B( 42-C ,100-H ) :   0.9431
B( 43-C ,101-H ) :   0.9574 B( 43-C ,102-H ) :   0.9504 B( 43-C ,103-H ) :   0.9510

FINAL SINGLE POINT ENERGY     -2008.098462901117

DIPOLE MOMENT
-------------
                                X             Y             Z
Electronic contribution:     23.00750      21.49514      -7.35600
Nuclear contribution   :    -22.66023     -22.49850       6.89771
                        -----------------------------------------
Total Dipole Moment    :      0.34728      -1.00337      -0.45829
                        -----------------------------------------
Magnitude (a.u.)       :      1.15645
Magnitude (Debye)      :      2.93946

Rotational constants in cm-1:     0.003453     0.001250     0.001075
Rotational constants in MHz :   103.516591    37.459356    32.217074

                             ****ORCA TERMINATED NORMALLY****
TOTAL RUN TIME: 0 days 0 hours 16 minutes 32 seconds 336 msec
